ITEM: TIMESTEP
0
ITEM: NUMBER OF ATOMS
1321
ITEM: BOX BOUNDS pp ff pp
0 9.05608
-109.951 109.951
0 11.0914
ITEM: ATOMS id type x y z c_csym c_eng 
3 1 1.43625 -108.927 2.10932 37.929 -2.76571 
5 1 3.2406 -105.686 0.636069 0.00706675 -3.33359 
7 1 0.538758 -106.475 0.993551 0.024642 -3.28279 
14 1 3.24746 -108.927 4.32759 37.929 -2.76571 
15 1 2.34997 -106.475 3.21183 0.024642 -3.28279 
2 1 4.18391 -108.178 1.71442 24.4026 -3.01603 
16 1 4.16119 -106.475 5.4301 0.0246419 -3.28279 
27 1 8.68968 -107.342 3.58117 15.8275 -3.16153 
1 1 6.87846 -107.342 1.36289 15.8275 -3.16153 
9 1 5.99512 -108.178 3.9327 24.4026 -3.01603 
13 1 6.86303 -105.686 5.07262 0.00706678 -3.33359 
18 1 5.05182 -105.686 2.85435 0.00706676 -3.33359 
21 1 3.23674 -104.026 4.33635 0.00454907 -3.35519 
28 1 0.520303 -104.87 4.70575 0.0072392 -3.3573 
29 1 1.42553 -104.026 2.11807 0.00454908 -3.35519 
30 1 0.521847 -101.552 1.00736 0.000253539 -3.35993 
31 1 2.33306 -101.552 3.22563 0.000253541 -3.35993 
19 1 4.14549 -103.209 1.74579 0.000254996 -3.36122 
54 1 4.14428 -101.552 5.44391 0.000253539 -3.35993 
32 1 8.67179 -102.385 3.59578 0.000431383 -3.3618 
4 1 5.95395 -104.87 0.269193 0.00723918 -3.3573 
12 1 7.76516 -104.87 2.48747 0.00723918 -3.3573 
20 1 5.95671 -103.209 3.96407 0.000254995 -3.36122 
22 1 6.86057 -102.385 1.3775 0.000431384 -3.3618 
33 1 3.23921 -100.728 0.637205 2.05462e-05 -3.36002 
35 1 1.42758 -99.0739 2.11639 1.92564e-05 -3.35978 
66 1 0.521903 -99.9023 4.70444 3.82531e-05 -3.36068 
69 1 3.2388 -99.0739 4.33467 1.92566e-05 -3.35978 
34 1 4.14457 -98.248 1.74654 1.7683e-06 -3.35995 
81 1 8.67246 -97.4215 3.59523 2.91447e-06 -3.36014 
23 1 5.95555 -99.9023 0.267886 3.82524e-05 -3.36068 
24 1 7.76676 -99.9023 2.48616 3.82523e-05 -3.36068 
25 1 5.05042 -100.728 2.85548 2.05462e-05 -3.36002 
26 1 6.86125 -97.4215 1.37695 2.91442e-06 -3.36014 
57 1 6.86164 -100.728 5.07376 2.05465e-05 -3.36002 
58 1 5.95578 -98.248 3.96482 1.76851e-06 -3.35995 
37 1 3.23889 -95.7679 0.637469 1.41943e-07 -3.35998 
39 1 0.522019 -96.5943 1.00722 1.51993e-06 -3.35993 
70 1 2.33323 -96.5943 3.22549 1.51997e-06 -3.35993 
76 1 3.23885 -94.1144 4.33462 1.17195e-07 -3.35998 
82 1 0.522023 -94.9412 4.70434 2.10617e-07 -3.36004 
83 1 1.42764 -94.1144 2.11635 1.17238e-07 -3.35998 
71 1 4.14445 -96.5943 5.44377 1.51987e-06 -3.35993 
74 1 4.14447 -93.2877 1.74662 1.11236e-08 -3.36 
86 1 8.6725 -92.461 3.5952 1.50353e-08 -3.36001 
36 1 5.95567 -94.9412 0.267789 2.10647e-07 -3.36004 
61 1 7.76688 -94.9412 2.48606 2.10525e-07 -3.36004 
62 1 6.86132 -95.7679 5.07402 1.41956e-07 -3.35998 
73 1 5.0501 -95.7679 2.85575 1.4196e-07 -3.35998 
75 1 5.95569 -93.2877 3.9649 1.11255e-08 -3.36 
77 1 6.86128 -92.461 1.37692 1.50368e-08 -3.36001 
84 1 0.522034 -91.6343 1.0072 8.96664e-09 -3.35999 
85 1 2.33325 -91.6343 3.22548 8.94311e-09 -3.35999 
87 1 3.23886 -90.8076 0.63749 8.78272e-10 -3.36 
89 1 1.42764 -89.1542 2.11634 6.84898e-10 -3.36 
119 1 0.522034 -89.9809 4.70433 1.07132e-09 -3.36 
122 1 3.23886 -89.1542 4.33462 6.76607e-10 -3.36 
88 1 4.14447 -88.3275 1.74663 6.89024e-11 -3.36 
109 1 4.14446 -91.6343 5.44376 8.92401e-09 -3.35999 
78 1 5.95568 -89.9809 0.267779 1.06897e-09 -3.36 
79 1 7.76689 -89.9809 2.48606 1.06993e-09 -3.36 
80 1 5.05008 -90.8076 2.85577 8.77311e-10 -3.36 
112 1 6.86129 -90.8076 5.07404 8.76969e-10 -3.36 
113 1 5.95568 -88.3275 3.96491 6.86681e-11 -3.36 
17 1 1.44482 -107.342 5.79945 15.8275 -3.16153 
47 1 0.561479 -108.178 8.36925 24.4026 -3.01603 
48 1 2.37269 -108.178 10.5875 24.4026 -3.01603 
49 1 3.25603 -107.342 8.01772 15.8275 -3.16153 
52 1 1.42939 -105.686 9.50917 0.00706678 -3.33359 
6 1 8.68111 -108.927 10.9824 37.929 -2.76571 
63 1 8.67425 -105.686 7.2909 0.00706678 -3.33359 
10 1 7.80634 -108.178 6.15098 24.4026 -3.01603 
11 1 5.05868 -108.927 6.54587 37.929 -2.76571 
41 1 6.86989 -108.927 8.76415 37.929 -2.76571 
42 1 5.9724 -106.475 7.64838 0.0246419 -3.28279 
43 1 7.78362 -106.475 9.86666 0.0246419 -3.28279 
44 1 5.06725 -107.342 10.236 15.8275 -3.16153 
50 1 2.33152 -104.87 6.92402 0.00723917 -3.3573 
56 1 3.23814 -102.385 8.03233 0.000431383 -3.3618 
64 1 0.52306 -103.209 8.40062 0.000254994 -3.36122 
65 1 1.42693 -102.385 5.81405 0.000431386 -3.3618 
92 1 2.33428 -103.209 10.6189 0.000254994 -3.36122 
51 1 4.14273 -104.87 9.1423 0.00723917 -3.3573 
8 1 8.67039 -104.026 10.9912 0.00454906 -3.35519 
45 1 7.76792 -103.209 6.18235 0.000254996 -3.36122 
46 1 6.85917 -104.026 8.7729 0.00454905 -3.35519 
53 1 5.04796 -104.026 6.55462 0.00454907 -3.35519 
55 1 5.95549 -101.552 7.66219 0.000253537 -3.35993 
91 1 7.76671 -101.552 9.88046 0.000253535 -3.35993 
93 1 5.04936 -102.385 10.2506 0.000431385 -3.3618 
67 1 2.33312 -99.9023 6.92272 3.82535e-05 -3.36068 
72 1 1.4276 -97.4215 5.8135 2.91483e-06 -3.36014 
101 1 1.42799 -100.728 9.51031 2.0546e-05 -3.36002 
102 1 0.522139 -98.248 8.40137 1.76823e-06 -3.35995 
103 1 2.33335 -98.248 10.6197 1.76843e-06 -3.35995 
104 1 3.23882 -97.4215 8.03178 2.91493e-06 -3.36014 
94 1 4.14433 -99.9023 9.14099 3.82539e-05 -3.36068 
38 1 8.67244 -99.0739 10.9895 1.92556e-05 -3.35978 
68 1 8.67285 -100.728 7.29203 2.05461e-05 -3.36002 
59 1 7.767 -98.248 6.1831 1.76841e-06 -3.35995 
60 1 5.05001 -99.0739 6.55295 1.92565e-05 -3.35978 
95 1 6.86123 -99.0739 8.77122 1.9256e-05 -3.35978 
98 1 5.05003 -97.4215 10.2501 2.91476e-06 -3.36014 
105 1 2.33324 -94.9412 6.92262 2.10713e-07 -3.36004 
107 1 1.42767 -95.7679 9.51057 1.41879e-07 -3.35998 
111 1 3.23885 -92.461 8.03175 1.50713e-08 -3.36001 
117 1 0.522043 -93.2877 8.40145 1.11092e-08 -3.36 
118 1 1.42764 -92.461 5.81347 1.50654e-08 -3.36001 
124 1 2.33326 -93.2877 10.6197 1.11038e-08 -3.36 
106 1 4.14445 -94.9412 9.14089 2.1071e-07 -3.36004 
40 1 8.6725 -94.1144 10.9895 1.17256e-07 -3.35998 
116 1 8.67253 -95.7679 7.2923 1.41892e-07 -3.35998 
96 1 5.95566 -96.5943 7.66205 1.51982e-06 -3.35993 
97 1 7.76688 -96.5943 9.88032 1.51995e-06 -3.35993 
99 1 7.7669 -93.2877 6.18318 1.1109e-08 -3.36 
100 1 6.86128 -94.1144 8.77118 1.17275e-07 -3.35998 
108 1 5.05007 -94.1144 6.5529 1.17204e-07 -3.35998 
125 1 5.05007 -92.461 10.25 1.50721e-08 -3.36001 
120 1 2.33325 -89.9809 6.92261 1.07255e-09 -3.36 
128 1 1.42764 -90.8076 9.5106 8.77383e-10 -3.36 
129 1 0.522036 -88.3275 8.40146 6.95974e-11 -3.36 
130 1 2.33325 -88.3275 10.6197 6.92368e-11 -3.36 
126 1 4.14446 -89.9809 9.14088 1.07443e-09 -3.36 
90 1 8.6725 -89.1542 10.9894 6.81321e-10 -3.36 
121 1 8.67251 -90.8076 7.29232 8.75309e-10 -3.36 
110 1 5.95568 -91.6343 7.66203 8.94412e-09 -3.35999 
114 1 7.7669 -88.3275 6.18318 6.96055e-11 -3.36 
115 1 5.05007 -89.1542 6.55289 6.72665e-10 -3.36 
123 1 7.76689 -91.6343 9.88031 8.95433e-09 -3.35999 
127 1 6.86129 -89.1542 8.77117 6.78149e-10 -3.36 
133 1 3.23886 -85.8474 0.63749 5.17518e-12 -3.36 
134 1 0.522036 -86.6741 1.0072 5.16275e-11 -3.36 
138 1 2.33325 -86.6741 3.22548 5.22839e-11 -3.36 
144 1 3.23886 -84.194 4.33462 4.01615e-12 -3.36 
151 1 0.522036 -85.0207 4.70433 5.50629e-12 -3.36 
152 1 1.42764 -84.194 2.11634 4.02905e-12 -3.36 
139 1 4.14447 -86.6741 5.44376 5.07303e-11 -3.36 
150 1 8.6725 -87.5008 3.59519 7.62482e-11 -3.36 
131 1 6.86129 -87.5008 1.37692 7.61014e-11 -3.36 
132 1 5.95568 -85.0207 0.267778 5.61431e-12 -3.36 
136 1 7.7669 -85.0207 2.48605 5.43418e-12 -3.36 
137 1 6.86129 -85.8474 5.07404 5.42709e-12 -3.36 
141 1 5.05007 -85.8474 2.85577 5.39057e-12 -3.36 
153 1 0.522036 -81.7139 1.0072 4.18548e-13 -3.36 
154 1 2.33325 -81.7139 3.22548 2.93004e-13 -3.36 
156 1 3.23886 -80.8872 0.63749 1.35417e-13 -3.36 
158 1 1.42764 -79.2337 2.11634 4.48717e-14 -3.36 
186 1 0.522036 -80.0605 4.70433 3.34361e-14 -3.36 
189 1 3.23886 -79.2337 4.33462 6.29144e-14 -3.36 
142 1 4.14447 -83.3673 1.74663 5.00365e-13 -3.36 
174 1 4.14447 -81.7139 5.44376 2.34131e-13 -3.36 
155 1 8.6725 -82.5406 3.59519 4.32287e-13 -3.36 
143 1 5.95568 -83.3673 3.9649 4.31714e-13 -3.36 
145 1 6.86129 -82.5406 1.37692 4.57491e-13 -3.36 
146 1 5.95568 -80.0605 0.267777 9.54249e-14 -3.36 
147 1 7.7669 -80.0605 2.48605 4.54558e-14 -3.36 
148 1 5.05007 -80.8872 2.85577 6.24043e-14 -3.36 
177 1 6.86129 -80.8872 5.07404 6.86237e-14 -3.36 
160 1 3.23886 -75.9269 0.63749 6.89755e-14 -3.36 
162 1 0.522036 -76.7536 1.0072 4.59576e-14 -3.36 
190 1 2.33325 -76.7536 3.22548 2.97054e-14 -3.36 
203 1 0.522036 -75.1002 4.70433 6.83513e-14 -3.36 
157 1 4.14447 -78.407 1.74663 7.44468e-14 -3.36 
191 1 4.14447 -76.7536 5.44376 4.94378e-14 -3.36 
202 1 8.6725 -77.5803 3.59519 5.22876e-14 -3.36 
149 1 6.86129 -77.5803 1.37692 5.64471e-14 -3.36 
159 1 5.95568 -75.1002 0.267777 1.12074e-13 -3.36 
178 1 5.95568 -78.407 3.9649 2.02396e-14 -3.36 
181 1 7.7669 -75.1002 2.48605 2.18862e-13 -3.36 
182 1 6.86129 -75.9269 5.07404 4.57267e-14 -3.36 
193 1 5.05007 -75.9269 2.85577 5.41834e-14 -3.36 
196 1 3.23886 -74.2735 4.33462 1.04543e-13 -3.36 
204 1 1.42764 -74.2735 2.11634 1.20533e-13 -3.36 
205 1 0.522036 -71.7934 1.0072 1.17727e-13 -3.36 
206 1 2.33325 -71.7934 3.22548 1.04011e-13 -3.36 
208 1 3.23886 -70.9667 0.637489 1.29235e-13 -3.36 
194 1 4.14447 -73.4468 1.74663 1.54912e-13 -3.36 
232 1 4.14447 -71.7934 5.44375 7.19208e-14 -3.36 
207 1 8.6725 -72.6201 3.59519 6.63268e-14 -3.36 
195 1 5.95568 -73.4468 3.9649 1.90781e-13 -3.36 
197 1 6.86129 -72.6201 1.37691 1.23714e-13 -3.36 
200 1 5.05007 -70.9667 2.85577 1.04596e-13 -3.36 
235 1 6.86129 -70.9667 5.07404 1.16425e-13 -3.36 
210 1 1.42764 -69.3133 2.11634 3.93135e-14 -3.36 
211 1 3.23886 -66.0065 0.63749 1.24162e-13 -3.36 
213 1 0.522035 -66.8332 1.0072 7.44714e-14 -3.36 
243 1 0.522036 -70.14 4.70433 9.06942e-14 -3.36 
246 1 3.23886 -69.3133 4.33462 1.09303e-13 -3.36 
247 1 2.33325 -66.8332 3.22548 1.51078e-14 -3.36 
209 1 4.14447 -68.4866 1.74663 5.48714e-14 -3.36 
248 1 4.14447 -66.8332 5.44376 2.63916e-14 -3.36 
251 1 8.6725 -67.6599 3.59519 2.54154e-14 -3.36 
198 1 5.95568 -70.14 0.267777 1.36649e-13 -3.36 
199 1 7.7669 -70.14 2.48605 4.84161e-14 -3.36 
201 1 6.86129 -67.6599 1.37692 8.93482e-14 -3.36 
236 1 5.95568 -68.4866 3.9649 6.67045e-14 -3.36 
239 1 6.86129 -66.0065 5.07404 5.92777e-14 -3.36 
250 1 5.05007 -66.0065 2.85577 1.90044e-14 -3.36 
140 1 1.42764 -87.5008 5.81347 7.5883e-11 -3.36 
169 1 3.23886 -87.5008 8.03175 7.59767e-11 -3.36 
170 1 2.33325 -85.0207 6.92261 5.31732e-12 -3.36 
172 1 1.42764 -85.8474 9.5106 5.68461e-12 -3.36 
171 1 4.14447 -85.0207 9.14088 5.56842e-12 -3.36 
135 1 8.6725 -84.194 10.9894 3.98707e-12 -3.36 
183 1 8.6725 -85.8474 7.29232 5.9295e-12 -3.36 
164 1 5.95568 -86.6741 7.66203 5.0319e-11 -3.36 
165 1 7.7669 -86.6741 9.88031 5.1628e-11 -3.36 
166 1 5.05007 -87.5008 10.25 7.62239e-11 -3.36 
168 1 6.86129 -84.194 8.77117 3.76809e-12 -3.36 
173 1 5.05007 -84.194 6.55289 3.70497e-12 -3.36 
176 1 3.23886 -82.5406 8.03174 3.88567e-13 -3.36 
184 1 0.522036 -83.3673 8.40146 4.44118e-13 -3.36 
185 1 1.42764 -82.5406 5.81347 4.11768e-13 -3.36 
187 1 2.33325 -80.0605 6.92261 7.67774e-14 -3.36 
215 1 2.33325 -83.3673 10.6197 5.49854e-13 -3.36 
224 1 1.42764 -80.8872 9.5106 6.33893e-14 -3.36 
217 1 4.14447 -80.0605 9.14088 6.93348e-14 -3.36 
161 1 8.6725 -79.2337 10.9894 8.72405e-14 -3.36 
188 1 8.6725 -80.8872 7.29232 9.23894e-14 -3.36 
167 1 7.7669 -83.3673 6.18318 4.55339e-13 -3.36 
175 1 5.95568 -81.7139 7.66203 2.90159e-13 -3.36 
180 1 5.05007 -79.2337 6.55289 3.49089e-14 -3.36 
214 1 7.7669 -81.7139 9.88031 2.83073e-13 -3.36 
216 1 5.05007 -82.5406 10.25 4.27735e-13 -3.36 
218 1 6.86129 -79.2337 8.77117 1.42489e-13 -3.36 
192 1 1.42764 -77.5803 5.81347 2.31997e-14 -3.36 
225 1 0.522036 -78.407 8.40146 6.36e-14 -3.36 
226 1 2.33325 -78.407 10.6197 2.98773e-14 -3.36 
227 1 3.23886 -77.5803 8.03174 3.44841e-14 -3.36 
228 1 2.33325 -75.1002 6.92261 8.14345e-14 -3.36 
230 1 1.42764 -75.9269 9.51059 4.54308e-14 -3.36 
229 1 4.14447 -75.1002 9.14088 3.48152e-14 -3.36 
240 1 8.6725 -75.9269 7.29232 6.06264e-14 -3.36 
179 1 7.7669 -78.407 6.18318 2.27042e-14 -3.36 
219 1 5.95568 -76.7536 7.66203 3.91048e-14 -3.36 
220 1 7.7669 -76.7536 9.88031 4.64123e-14 -3.36 
221 1 5.05007 -77.5803 10.25 3.17619e-14 -3.36 
234 1 3.23886 -72.6201 8.03174 1.39883e-13 -3.36 
241 1 0.522036 -73.4468 8.40146 1.18295e-13 -3.36 
242 1 1.42764 -72.6201 5.81347 7.82864e-14 -3.36 
253 1 2.33325 -73.4468 10.6197 1.69934e-13 -3.36 
260 1 1.42764 -70.9667 9.51059 1.93777e-13 -3.36 
163 1 8.6725 -74.2735 10.9894 1.63391e-13 -3.36 
245 1 8.6725 -70.9667 7.29232 1.74983e-13 -3.36 
222 1 7.7669 -73.4468 6.18318 1.37362e-13 -3.36 
223 1 6.86129 -74.2735 8.77117 1.75145e-13 -3.36 
231 1 5.05007 -74.2735 6.55289 8.77411e-14 -3.36 
233 1 5.95568 -71.7934 7.66203 1.61695e-13 -3.36 
252 1 7.7669 -71.7934 9.88031 1.2768e-13 -3.36 
254 1 5.05007 -72.6201 10.25 1.40224e-13 -3.36 
244 1 2.33325 -70.14 6.92261 2.05635e-13 -3.36 
249 1 1.42764 -67.6599 5.81347 5.14493e-14 -3.36 
261 1 0.522035 -68.4866 8.40146 6.88467e-14 -3.36 
262 1 2.33325 -68.4866 10.6197 3.93654e-14 -3.36 
263 1 3.23886 -67.6599 8.03174 2.42961e-14 -3.36 
264 1 1.42764 -66.0065 9.5106 2.29271e-14 -3.36 
255 1 4.14447 -70.14 9.14088 1.6884e-13 -3.36 
212 1 8.6725 -69.3133 10.9894 1.02326e-13 -3.36 
265 1 8.6725 -66.0065 7.29232 3.23945e-14 -3.36 
237 1 7.7669 -68.4866 6.18318 7.66635e-14 -3.36 
238 1 5.05007 -69.3133 6.55289 1.5073e-13 -3.36 
256 1 6.86129 -69.3133 8.77117 1.24145e-13 -3.36 
257 1 5.95568 -66.8332 7.66203 2.26555e-14 -3.36 
258 1 7.7669 -66.8332 9.88031 4.60595e-14 -3.36 
259 1 5.05007 -67.6599 10.25 4.10835e-14 -3.36 
271 1 3.23886 -64.3531 4.33462 9.99452e-14 -3.36 
277 1 0.522035 -65.1798 4.70433 4.00714e-14 -3.36 
278 1 1.42764 -64.3531 2.11634 8.52544e-14 -3.36 
279 1 0.522034 -61.8729 1.0072 5.64522e-14 -3.36 
280 1 2.33325 -61.8729 3.22548 7.99952e-14 -3.36 
269 1 4.14446 -63.5264 1.74663 5.93286e-14 -3.36 
295 1 4.14446 -61.8729 5.44376 2.6467e-14 -3.36 
281 1 8.6725 -62.6997 3.59519 4.36911e-14 -3.36 
266 1 5.95568 -65.1798 0.267777 7.01607e-14 -3.36 
268 1 7.7669 -65.1798 2.48605 8.71118e-14 -3.36 
270 1 5.95568 -63.5264 3.9649 5.83782e-14 -3.36 
272 1 6.86129 -62.6997 1.37692 4.29457e-14 -3.36 
282 1 3.23886 -61.0462 0.63749 1.35112e-13 -3.36 
284 1 1.42764 -59.3928 2.11634 2.46755e-14 -3.36 
306 1 0.522034 -60.2195 4.70433 2.46905e-14 -3.36 
309 1 3.23886 -59.3928 4.33462 4.2711e-14 -3.36 
283 1 4.14446 -58.5661 1.74663 3.8387e-14 -3.36 
322 1 8.6725 -57.7394 3.59519 1.93404e-14 -3.36 
273 1 5.95568 -60.2195 0.267778 1.02849e-13 -3.36 
274 1 7.76689 -60.2195 2.48605 4.65911e-14 -3.36 
275 1 5.05007 -61.0462 2.85577 7.34043e-14 -3.36 
276 1 6.86129 -57.7394 1.37692 2.85939e-14 -3.36 
298 1 6.86129 -61.0462 5.07404 4.73137e-14 -3.36 
299 1 5.95568 -58.5661 3.96491 9.93438e-14 -3.36 
286 1 3.23886 -56.086 0.637491 1.07778e-13 -3.36 
288 1 0.522034 -56.9127 1.0072 2.17402e-14 -3.36 
310 1 2.33325 -56.9127 3.22548 2.70296e-14 -3.36 
316 1 3.23886 -54.4326 4.33462 1.78442e-13 -3.36 
323 1 0.522034 -55.2593 4.70433 9.17482e-14 -3.36 
324 1 1.42764 -54.4326 2.11634 1.66164e-13 -3.36 
311 1 4.14446 -56.9127 5.44376 6.40747e-14 -3.36 
314 1 4.14446 -53.6059 1.74663 1.11807e-13 -3.36 
327 1 8.6725 -52.7792 3.59519 1.08784e-13 -3.36 
285 1 5.95568 -55.2593 0.267779 8.89791e-14 -3.36 
302 1 7.76689 -55.2593 2.48605 9.7964e-14 -3.36 
303 1 6.86129 -56.086 5.07404 9.93809e-14 -3.36 
313 1 5.05007 -56.086 2.85577 6.15888e-14 -3.36 
315 1 5.95568 -53.6059 3.96491 1.02295e-13 -3.36 
317 1 6.86129 -52.7792 1.37692 1.11384e-13 -3.36 
325 1 0.522034 -51.9525 1.0072 1.17544e-13 -3.36 
326 1 2.33325 -51.9525 3.22548 1.3747e-13 -3.36 
328 1 3.23886 -51.1258 0.637492 4.45072e-14 -3.36 
330 1 1.42764 -49.4724 2.11634 7.93967e-14 -3.36 
366 1 0.522034 -50.2991 4.70433 5.31677e-14 -3.36 
369 1 3.23886 -49.4724 4.33462 5.06789e-14 -3.36 
329 1 4.14446 -48.6457 1.74663 6.30039e-14 -3.36 
354 1 4.14446 -51.9525 5.44376 1.70773e-13 -3.36 
318 1 5.95568 -50.2991 0.267779 7.10556e-14 -3.36 
319 1 7.76689 -50.2991 2.48606 4.18298e-14 -3.36 
320 1 5.05007 -51.1258 2.85577 1.18195e-13 -3.36 
357 1 6.86129 -51.1258 5.07404 6.57197e-14 -3.36 
358 1 5.95568 -48.6457 3.96491 5.04977e-14 -3.36 
332 1 3.23886 -46.1656 0.637492 6.03387e-14 -3.36 
334 1 0.522033 -46.9923 1.0072 3.96044e-14 -3.36 
370 1 2.33325 -46.9923 3.22548 2.55103e-14 -3.36 
374 1 3.23886 -44.5121 4.33462 1.09262e-13 -3.36 
376 1 0.522033 -45.3389 4.70433 6.37497e-14 -3.36 
377 1 1.42764 -44.5121 2.11634 1.13142e-13 -3.36 
371 1 4.14446 -46.9923 5.44376 3.89661e-14 -3.36 
375 1 8.6725 -47.819 3.59519 3.37013e-14 -3.36 
321 1 6.86129 -47.819 1.37692 4.43273e-14 -3.36 
331 1 5.95568 -45.3389 0.267779 5.88321e-14 -3.36 
361 1 7.76689 -45.3389 2.48606 1.36084e-13 -3.36 
362 1 6.86129 -46.1656 5.07404 9.77263e-14 -3.36 
373 1 5.05007 -46.1656 2.85577 7.38377e-14 -3.36 
292 1 2.33325 -65.1798 6.92261 9.05944e-14 -3.36 
297 1 3.23886 -62.6997 8.03174 6.28532e-14 -3.36 
304 1 0.522035 -63.5264 8.40146 7.66114e-14 -3.36 
305 1 1.42764 -62.6997 5.81347 3.61542e-14 -3.36 
337 1 2.33325 -63.5264 10.6197 4.29466e-14 -3.36 
293 1 4.14446 -65.1798 9.14088 3.81392e-14 -3.36 
267 1 8.6725 -64.3531 10.9894 7.46556e-14 -3.36 
290 1 7.76689 -63.5264 6.18318 6.52368e-14 -3.36 
291 1 6.86129 -64.3531 8.77117 8.9396e-14 -3.36 
294 1 5.05007 -64.3531 6.55289 1.53906e-13 -3.36 
296 1 5.95568 -61.8729 7.66203 3.98943e-14 -3.36 
336 1 7.76689 -61.8729 9.88031 3.5584e-14 -3.36 
338 1 5.05007 -62.6997 10.25 2.03865e-14 -3.36 
307 1 2.33325 -60.2195 6.92261 5.41978e-14 -3.36 
312 1 1.42764 -57.7394 5.81347 8.27654e-14 -3.36 
346 1 1.42764 -61.0462 9.5106 1.21056e-13 -3.36 
347 1 0.522034 -58.5661 8.40146 4.35613e-14 -3.36 
348 1 2.33325 -58.5661 10.6197 5.16028e-14 -3.36 
349 1 3.23886 -57.7394 8.03175 3.0496e-14 -3.36 
339 1 4.14446 -60.2195 9.14088 1.56462e-13 -3.36 
287 1 8.6725 -59.3928 10.9894 3.4502e-14 -3.36 
308 1 8.6725 -61.0462 7.29232 3.3065e-14 -3.36 
300 1 7.76689 -58.5661 6.18318 3.06124e-14 -3.36 
301 1 5.05007 -59.3928 6.55289 6.11181e-14 -3.36 
340 1 6.86129 -59.3928 8.77117 7.93712e-14 -3.36 
343 1 5.05007 -57.7394 10.25 4.9452e-14 -3.36 
350 1 2.33325 -55.2593 6.92261 1.98268e-13 -3.36 
352 1 1.42764 -56.086 9.5106 5.92724e-14 -3.36 
356 1 3.23886 -52.7792 8.03175 1.86868e-13 -3.36 
364 1 0.522034 -53.6059 8.40146 1.84373e-13 -3.36 
365 1 1.42764 -52.7792 5.81347 1.1268e-13 -3.36 
379 1 2.33325 -53.6059 10.6197 1.24124e-13 -3.36 
351 1 4.14446 -55.2593 9.14088 9.56784e-14 -3.36 
289 1 8.6725 -54.4326 10.9894 8.38541e-14 -3.36 
363 1 8.6725 -56.086 7.29232 9.83959e-14 -3.36 
341 1 5.95568 -56.9127 7.66203 4.99517e-14 -3.36 
342 1 7.76689 -56.9127 9.88031 3.34189e-14 -3.36 
344 1 7.76689 -53.6059 6.18318 1.32106e-13 -3.36 
345 1 6.86129 -54.4326 8.77117 5.64025e-14 -3.36 
353 1 5.05007 -54.4326 6.5529 1.57082e-13 -3.36 
380 1 5.05007 -52.7792 10.25 1.21889e-13 -3.36 
367 1 2.33325 -50.2991 6.92261 4.92868e-14 -3.36 
387 1 1.42764 -51.1258 9.5106 8.85044e-14 -3.36 
388 1 0.522034 -48.6457 8.40146 3.99553e-14 -3.36 
389 1 2.33325 -48.6457 10.6197 1.15084e-13 -3.36 
381 1 4.14446 -50.2991 9.14088 6.70172e-14 -3.36 
333 1 8.6725 -49.4724 10.9894 1.46433e-13 -3.36 
368 1 8.6725 -51.1258 7.29232 6.96924e-14 -3.36 
355 1 5.95568 -51.9525 7.66203 2.46363e-13 -3.36 
359 1 7.76689 -48.6457 6.18318 2.07571e-14 -3.36 
360 1 5.05007 -49.4724 6.5529 6.08081e-14 -3.36 
378 1 7.76689 -51.9525 9.88031 1.28371e-13 -3.36 
382 1 6.86129 -49.4724 8.77117 9.49018e-14 -3.36 
372 1 1.42764 -47.819 5.81347 4.96643e-14 -3.36 
390 1 3.23886 -47.819 8.03175 1.44602e-14 -3.36 
391 1 2.33325 -45.3389 6.92261 1.81666e-13 -3.36 
393 1 1.42764 -46.1656 9.5106 7.34395e-14 -3.36 
392 1 4.14446 -45.3389 9.14088 9.99642e-14 -3.36 
335 1 8.6725 -44.5121 10.9894 5.87282e-14 -3.36 
395 1 8.6725 -46.1656 7.29232 4.86532e-14 -3.36 
383 1 5.95568 -46.9923 7.66203 3.50601e-14 -3.36 
384 1 7.76689 -46.9923 9.88031 2.26717e-14 -3.36 
385 1 5.05007 -47.819 10.25 5.06072e-14 -3.36 
386 1 6.86129 -44.5121 8.77117 9.47972e-14 -3.36 
394 1 5.05007 -44.5121 6.5529 3.90374e-13 -3.36 
403 1 0.522033 -42.032 1.0072 5.16601e-14 -3.36 
404 1 2.33325 -42.032 3.22548 8.35456e-14 -3.36 
406 1 3.23886 -41.2053 0.637491 9.00231e-14 -3.36 
426 1 0.522033 -40.3786 4.70433 1.58066e-13 -3.36 
396 1 4.14446 -43.6854 1.74663 7.90148e-14 -3.36 
415 1 4.14446 -42.032 5.44376 1.01447e-13 -3.36 
405 1 8.6725 -42.8587 3.59519 1.24677e-13 -3.36 
397 1 5.95568 -43.6854 3.96491 4.77024e-14 -3.36 
398 1 6.86129 -42.8587 1.37692 8.47748e-14 -3.36 
399 1 5.95568 -40.3786 0.267779 1.54004e-13 -3.36 
400 1 7.76689 -40.3786 2.48605 1.41574e-13 -3.36 
401 1 5.05007 -41.2053 2.85577 1.03738e-13 -3.36 
418 1 6.86129 -41.2053 5.07404 8.58855e-14 -3.36 
408 1 1.42764 -39.5519 2.11634 2.67353e-13 -3.36 
429 1 3.23885 -39.5519 4.33462 3.29603e-13 -3.36 
410 1 3.23885 -36.2451 0.637491 6.4588e-12 -3.36 
412 1 0.522032 -37.0718 1.0072 2.86098e-12 -3.36 
430 1 2.33325 -37.0718 3.22548 1.983e-12 -3.36 
443 1 0.522031 -35.4184 4.70433 9.95937e-12 -3.36 
407 1 4.14446 -38.7252 1.74663 4.46526e-13 -3.36 
431 1 4.14446 -37.0718 5.44376 3.07336e-12 -3.36 
442 1 8.6725 -37.8985 3.59519 1.11244e-12 -3.36 
402 1 6.86128 -37.8985 1.37692 1.27255e-12 -3.36 
409 1 5.95568 -35.4184 0.267779 1.31454e-11 -3.36 
419 1 5.95568 -38.7252 3.96491 6.54939e-13 -3.36 
422 1 7.76689 -35.4184 2.48605 1.03339e-11 -3.36 
423 1 6.86128 -36.2451 5.07404 5.68036e-12 -3.36 
433 1 5.05007 -36.2451 2.85577 4.23643e-12 -3.36 
436 1 3.23885 -34.5917 4.33462 1.72101e-11 -3.36 
444 1 1.42764 -34.5917 2.11634 2.37925e-11 -3.36 
445 1 0.522031 -32.1116 1.00721 2.293e-10 -3.36 
446 1 2.33325 -32.1116 3.22548 1.83378e-10 -3.36 
448 1 3.23885 -31.2849 0.637494 4.25681e-10 -3.36 
434 1 4.14446 -33.765 1.74663 5.53527e-11 -3.36 
474 1 4.14446 -32.1116 5.44375 1.66928e-10 -3.36 
447 1 8.6725 -32.9383 3.59519 7.89885e-11 -3.36 
435 1 5.95568 -33.765 3.96491 3.34636e-11 -3.36 
437 1 6.86128 -32.9383 1.37692 1.16859e-10 -3.36 
440 1 5.05007 -31.2849 2.85577 4.30833e-10 -3.36 
477 1 6.86128 -31.2849 5.07404 2.96663e-10 -3.36 
450 1 1.42764 -29.6315 2.11635 2.06988e-09 -3.36 
454 1 0.522025 -27.1514 1.00722 1.21065e-08 -3.36 
486 1 0.522031 -30.4582 4.70433 6.15661e-10 -3.36 
489 1 3.23886 -29.6315 4.33462 1.35242e-09 -3.36 
490 1 2.33325 -27.1513 3.2255 1.76213e-08 -3.36 
449 1 4.14446 -28.8048 1.74664 3.9634e-09 -3.36 
491 1 4.14447 -27.1513 5.44376 1.0579e-08 -3.35999 
498 1 8.6725 -27.978 3.59521 7.55631e-09 -3.36 
438 1 5.95567 -30.4582 0.267781 6.57602e-10 -3.36 
439 1 7.76689 -30.4582 2.48606 9.79143e-10 -3.36 
441 1 6.86128 -27.9781 1.37693 6.44287e-09 -3.36 
478 1 5.95568 -28.8047 3.96491 3.09033e-09 -3.36 
452 1 3.23884 -26.3247 0.637497 2.37556e-08 -3.36001 
496 1 3.23888 -24.6711 4.33468 1.42555e-07 -3.35998 
499 1 0.522048 -25.4979 4.70437 5.49602e-08 -3.35999 
500 1 1.42764 -24.6713 2.11639 1.2855e-07 -3.36001 
501 1 0.52194 -22.1914 1.00716 8.75591e-07 -3.36006 
502 1 2.33329 -22.1911 3.22567 1.35813e-06 -3.35999 
494 1 4.14445 -23.8446 1.74667 2.20968e-07 -3.36001 
522 1 4.14455 -22.1908 5.4439 9.89146e-07 -3.35997 
482 1 6.86129 -26.3246 5.07406 2.0842e-08 -3.35999 
493 1 5.05008 -26.3246 2.8558 3.43504e-08 -3.36 
503 1 8.67253 -23.0177 3.59533 5.89929e-07 -3.36001 
451 1 5.95566 -25.498 0.267768 3.76754e-08 -3.36001 
481 1 7.76689 -25.4979 2.4861 6.13424e-08 -3.36 
495 1 5.95571 -23.8444 3.965 2.73068e-07 -3.35999 
497 1 6.86123 -23.018 1.37692 3.28255e-07 -3.36003 
417 1 3.23886 -42.8587 8.03175 6.47845e-14 -3.36 
424 1 0.522033 -43.6854 8.40146 6.55465e-14 -3.36 
425 1 1.42764 -42.8587 5.81347 8.70688e-14 -3.36 
427 1 2.33325 -40.3786 6.92261 1.44256e-13 -3.36 
457 1 2.33325 -43.6854 10.6197 5.79872e-14 -3.36 
466 1 1.42764 -41.2053 9.5106 1.28033e-13 -3.36 
459 1 4.14446 -40.3786 9.14088 2.0119e-13 -3.36 
428 1 8.6725 -41.2053 7.29232 1.12371e-13 -3.36 
414 1 7.76689 -43.6854 6.18318 8.12652e-14 -3.36 
416 1 5.95568 -42.032 7.66203 7.98317e-14 -3.36 
456 1 7.76689 -42.032 9.88031 7.4181e-14 -3.36 
458 1 5.05007 -42.8587 10.25 5.27532e-14 -3.36 
432 1 1.42764 -37.8985 5.81347 1.5635e-12 -3.36 
467 1 0.522032 -38.7252 8.40146 7.26433e-13 -3.36 
468 1 2.33325 -38.7252 10.6197 7.65651e-13 -3.36 
469 1 3.23885 -37.8985 8.03175 1.12655e-12 -3.36 
470 1 2.33325 -35.4184 6.92261 1.25251e-11 -3.36 
472 1 1.42764 -36.2451 9.5106 4.53517e-12 -3.36 
471 1 4.14446 -35.4184 9.14088 7.73253e-12 -3.36 
411 1 8.6725 -39.5519 10.9894 3.28619e-13 -3.36 
421 1 5.05007 -39.5519 6.55289 3.45069e-13 -3.36 
460 1 6.86129 -39.5519 8.77117 2.7888e-13 -3.36 
483 1 8.6725 -36.2451 7.29232 5.91587e-12 -3.36 
420 1 7.76689 -38.7252 6.18318 8.16401e-13 -3.36 
461 1 5.95568 -37.0718 7.66203 2.43759e-12 -3.36 
462 1 7.76689 -37.0718 9.88031 2.39761e-12 -3.36 
463 1 5.05007 -37.8985 10.25 1.61009e-12 -3.36 
476 1 3.23885 -32.9383 8.03174 1.00504e-10 -3.36 
484 1 0.52203 -33.765 8.40146 4.57796e-11 -3.36 
485 1 1.42764 -32.9383 5.81347 1.02094e-10 -3.36 
505 1 2.33325 -33.765 10.6197 4.3471e-11 -3.36 
514 1 1.42764 -31.2849 9.51059 3.49701e-10 -3.36 
413 1 8.6725 -34.5917 10.9894 2.35025e-11 -3.36 
488 1 8.6725 -31.2849 7.29232 5.09184e-10 -3.36 
464 1 7.76689 -33.765 6.18318 5.43329e-11 -3.36 
465 1 6.86128 -34.5917 8.77117 1.72101e-11 -3.36 
473 1 5.05007 -34.5917 6.55289 2.69772e-11 -3.36 
475 1 5.95567 -32.1116 7.66203 2.27294e-10 -3.36 
504 1 7.76689 -32.1116 9.88031 1.38758e-10 -3.36 
506 1 5.05007 -32.9383 10.25 6.96477e-11 -3.36 
487 1 2.33324 -30.4582 6.9226 9.42843e-10 -3.36 
492 1 1.42764 -27.978 5.81347 5.06463e-09 -3.36 
515 1 0.522025 -28.8048 8.40145 4.32282e-09 -3.36 
516 1 2.33324 -28.8048 10.6197 2.75234e-09 -3.36 
517 1 3.23885 -27.9781 8.03173 8.37659e-09 -3.36 
507 1 4.14446 -30.4582 9.14088 7.38657e-10 -3.36 
453 1 8.6725 -29.6315 10.9894 1.24376e-09 -3.36 
479 1 7.76689 -28.8048 6.18317 2.79595e-09 -3.36 
480 1 5.05007 -29.6315 6.55289 1.64778e-09 -3.36 
508 1 6.86128 -29.6315 8.77116 1.82642e-09 -3.36 
509 1 5.95567 -27.1514 7.66201 1.5973e-08 -3.36 
510 1 7.76688 -27.1514 9.88029 1.34027e-08 -3.36 
511 1 5.05006 -27.9781 10.25 5.25721e-09 -3.36 
520 1 1.42762 -26.3247 9.51057 3.49057e-08 -3.36001 
518 1 2.33325 -25.4979 6.92259 4.75649e-08 -3.36 
524 1 3.23886 -23.0178 8.03165 4.74897e-07 -3.36 
526 1 0.522016 -23.8446 8.40138 2.60625e-07 -3.36 
527 1 1.4277 -23.0176 5.81355 4.49121e-07 -3.35996 
529 1 2.3332 -23.8447 10.6197 2.80313e-07 -3.36002 
519 1 4.14444 -25.498 9.14083 7.27484e-08 -3.36001 
525 1 8.6725 -26.3246 7.29229 2.6104e-08 -3.36 
455 1 8.67246 -24.6713 10.9894 1.01654e-07 -3.36001 
512 1 7.76692 -23.8444 6.1832 1.4396e-07 -3.35997 
513 1 6.86126 -24.6713 8.7711 1.39486e-07 -3.36 
521 1 5.05008 -24.6712 6.55288 8.62386e-08 -3.35999 
523 1 5.95569 -22.191 7.66196 7.38747e-07 -3.35995 
528 1 7.76679 -22.1913 9.8801 1.30384e-06 -3.36002 
530 1 5.05001 -23.018 10.2499 5.8691e-07 -3.36002 
535 1 3.23872 -21.3649 0.637307 2.24388e-06 -3.36003 
537 1 1.42749 -19.7118 2.1164 8.49828e-06 -3.36004 
549 1 0.522229 -20.5374 4.70482 6.17542e-06 -3.35987 
552 1 3.23901 -19.7106 4.33516 1.2421e-05 -3.36006 
536 1 4.14396 -18.8855 1.74614 2.12032e-05 -3.36013 
565 1 8.67282 -18.0583 3.59636 7.89608e-05 -3.36022 
531 1 5.95543 -20.5382 0.26739 5.21257e-06 -3.36003 
532 1 7.7668 -20.538 2.48616 5.27485e-06 -3.36026 
533 1 5.05005 -21.3645 2.85592 2.37269e-06 -3.36004 
534 1 6.86047 -18.0591 1.3756 8.67169e-05 -3.36093 
543 1 6.86141 -21.3641 5.07431 2.25521e-06 -3.35992 
544 1 5.95587 -18.8844 3.96554 3.44908e-05 -3.36003 
539 1 3.23728 -16.4064 0.634477 0.000237264 -3.3605 
541 1 0.521537 -17.2338 1.00579 0.00011037 -3.36011 
553 1 2.33265 -17.2321 3.22572 9.62792e-05 -3.36074 
559 1 3.23875 -14.755 4.33809 0.00128166 -3.35872 
566 1 0.523917 -15.5764 4.70893 0.000829892 -3.3609 
567 1 1.42435 -14.7563 2.11118 0.0014532 -3.36404 
554 1 4.14533 -17.2295 5.44569 0.000146983 -3.35934 
557 1 4.14042 -13.9343 1.73608 0.0027039 -3.36209 
538 1 5.95277 -15.5779 0.261322 0.00129031 -3.36232 
547 1 7.7664 -15.5853 2.48537 0.000615853 -3.36005 
548 1 6.86252 -16.4037 5.07738 0.000399329 -3.35973 
556 1 5.04901 -16.4082 2.85459 0.00028079 -3.36001 
558 1 5.95314 -13.9365 3.96714 0.00187727 -3.35777 
568 1 0.514128 -12.2707 0.984265 0.0194703 -3.3653 
569 1 2.33192 -12.2995 3.2228 0.0085124 -3.35613 
571 1 3.23078 -11.4494 0.606155 0.0261461 -3.34256 
573 1 1.43108 -9.86315 2.10512 0.0954246 -3.33019 
606 1 0.530687 -10.6514 4.7144 0.017618 -3.36415 
609 1 3.2342 -9.83284 4.34352 0.0325381 -3.33034 
572 1 4.11138 -9.04072 1.72056 0.290692 -3.27685 
594 1 4.14196 -12.2703 5.45925 0.0102679 -3.35421 
570 1 8.67192 -13.114 3.59776 0.00392276 -3.36598 
560 1 6.85917 -13.1192 1.36784 0.00589516 -3.35653 
561 1 5.96812 -10.6481 0.253561 0.0542058 -3.33768 
562 1 7.76006 -10.6708 2.4612 0.0354689 -3.34277 
563 1 5.03872 -11.483 2.84239 0.0105281 -3.36184 
597 1 6.84899 -11.4758 5.09353 0.0281042 -3.35877 
598 1 5.94602 -9.08173 3.96445 0.152928 -3.33068 
575 1 3.0373 -6.16509 0.557431 12.5889 -3.35654 
577 1 0.477467 -7.37341 1.10442 11.2831 -3.24008 
610 1 2.32127 -7.38602 3.20425 6.54186 -3.34426 
622 1 0.406113 -5.90592 4.49704 10.3798 -3.21456 
657 2 0.36472 -4.96991 0.0455402 11.1537 -3.2388 
611 1 4.14901 -7.30187 5.35131 4.89307 -3.31952 
651 2 2.85399 -4.61327 4.05179 9.92949 -3.32186 
621 1 8.63326 -8.27426 3.56029 0.477812 -3.26622 
564 1 6.85456 -8.16033 1.35899 6.92607 -3.34253 
602 1 6.9273 -6.72128 5.11046 3.76127 -3.26222 
613 1 4.99966 -6.70791 2.72045 6.50144 -3.23532 
619 2 7.56473 -5.37429 2.32964 11.582 -3.38721 
648 2 5.49356 -4.70261 4.41835 10.777 -3.1132 
626 2 2.15489 -1.78349 5.24666 0.239996 -3.36639 
644 2 3.97718 -1.88299 3.0979 0.606944 -3.3495 
645 2 3.05915 -0.938252 0.47813 0.0311072 -3.34765 
646 2 1.26846 -0.93251 2.67712 0.0463905 -3.33991 
647 2 2.14515 -3.43108 1.54915 6.66669 -3.35332 
656 2 0.312244 -3.36784 3.71516 5.57253 -3.27708 
663 2 0.342531 -0.114965 0.0967683 0.0068613 -3.37118 
578 2 8.48284 -0.994796 4.91607 0.185134 -3.35133 
616 2 5.78172 -1.73445 0.81959 0.0676339 -3.35176 
617 2 8.49119 -2.60969 1.19394 0.144407 -3.31117 
618 2 6.71583 -2.54945 3.38165 0.624168 -3.33022 
649 2 4.84307 -4.21064 1.77449 7.07509 -3.26452 